832
Lattice="22.26507235923432 0.0 0.0 0.0 22.26507235923432 0.0 0.0 0.0 22.26507235923432" Properties=species:S:1:pos:R:3:forces:R:3 mol_liquid.pdb=T energy=-304080.1695826965 stress="0.0014487652386418071 0.00012848255564447089 0.00013009067860178858 0.00012848255564447089 0.0011952565834020296 -5.416740966239634e-05 0.00013009067860178858 -5.416740966239634e-05 0.0010096946884050753" free_energy=-304080.1695826965 pbc="T T T"
C        6.61179366       6.63987286       0.97383811       0.02177394      -0.07875998      -0.01109101
C        6.63070645       8.13920543       1.22946489       0.04368427      -0.07440128       0.03123981
C        8.01448328       6.04983841       0.85675793       0.00284785       0.02624115       0.02875492
H        6.05606914       6.44130767       0.05591775      -0.02154758       0.02672016      -0.04465828
H        6.05739888       6.14513005       1.77127063      -0.00785462       0.04001073       0.05648013
N        5.27888064       8.66763144       1.37789547      -0.02046913      -0.02699066       0.08686467
H        7.22201022       8.62182937       0.44071240      -0.08904993       0.01689718      -0.06427686
H        7.15707272       8.33253520       2.16383107       0.06722808      -0.00351043       0.07474406
H        4.71484175       8.50905514       0.55375716       0.04274535       0.02333186       0.01849757
H        5.29456700       9.66075124       1.55974769      -0.02686510       0.00471938      -0.09088814
H        7.98852960       4.98543356       0.61515453      -0.01792663       0.08414173       0.03834649
H        8.56792581       6.16557197       1.78882089      -0.01212520      -0.02279341       0.01511886
H        8.58621080       6.55167156       0.07526223       0.00557411      -0.03360170       0.02874839
C       17.81508913      19.66730170      14.77436313       0.07654772       0.01603864      -0.03304362
C       16.58653735      19.68788730      15.66844925       0.08359735      -0.06982919       0.00678124
C       19.10801098      19.74612216      15.58000777      -0.02588035       0.00808227       0.01798754
H       17.76335077      20.50879330      14.08103347      -0.00287970       0.06765356      -0.03876922
H       17.80265810      18.76854484      14.15710029      -0.03625134      -0.05582519       0.06038856
N       15.35840814      19.53648376      14.89117746      -0.00032619      -0.10821856      -0.00555003
H       16.60927743      20.58828109      16.29347450      -0.01352611       0.00999087      -0.06004541
H       16.64473240      18.84602104      16.35675368      -0.00976745      -0.10531236       0.07143543
H       15.29293127      20.25247062      14.17995765      -0.00438852      -0.02026271       0.07721041
H       14.55298280      19.63077016      15.49487407      -0.01769837       0.02443492      -0.05401784
H       19.99510485      19.71038131      14.94623186      -0.08053664      -0.01361190       0.05308873
H       19.17023499      18.91810156      16.28810991       0.02635897       0.00421715      -0.03013166
H       19.14570381      20.67259392      16.15633181       0.02125539      -0.01079747      -0.00224964
C        2.69961631      19.63320896       8.32057069       0.06586285       0.04844191       0.01404697
C        1.79338539      18.49418897       8.75677620       0.08134038       0.01626309      -0.02273258
C        3.94430891      19.73543737       9.19084552      -0.02036269      -0.07114138       0.04011825
H        2.13749647      20.56530458       8.38148262      -0.05773817       0.00086612       0.00911095
H        2.97643371      19.51187040       7.27340624      -0.01201961      -0.11065520       0.00302336
N        0.62340673      18.42278627       7.89258138      -0.00480585      -0.04725194      -0.08141228
H        1.56968303      18.61672176       9.82586738      -0.10253081       0.00628708      -0.01657515
H        2.32857922      17.54886603       8.67206407       0.07884906      -0.06072108      -0.03114769
H        0.07591940      19.27002954       7.94297644      -0.04226171      -0.03228511       0.04476831
H        0.02280958      17.64506588       8.11930398      -0.03583387       0.00719276       0.05755137
H        4.62257041      20.51349490       8.84406040      -0.08282366      -0.14145638       0.03385177
H        4.48390716      18.78838168       9.19379340       0.07112306       0.00028568      -0.03336920
H        3.67758754      19.95254783      10.22689244       0.02945119       0.04474582      -0.00287771
C        4.03681389       1.75801958       8.54618722       0.07664892       0.07259592       0.06447038
C        2.83386586       0.94743957       8.09361162       0.12260202       0.01970858      -0.00374723
C        5.07723287       0.91110679       9.27283465      -0.02203781       0.02722425       0.01484434
H        3.70817399       2.56992751       9.19464370      -0.05578010       0.03870826       0.10578113
H        4.49114477       2.24255101       7.68225871      -0.03794968      -0.04812147      -0.07398119
N        1.88438141       1.77878919       7.35682943       0.04152530       0.03162061      -0.09771305
H        2.39610666       0.43519640       8.96078188      -0.01109749       0.11712589       0.03300484
H        3.17156137       0.15913745       7.42383996       0.04488049      -0.04873078      -0.06406821
H        1.49727507       2.50366042       7.94612291      -0.00041153      -0.04317628       0.02074969
H        1.11321665       1.22453953       7.01288695      -0.04824298       0.05291945       0.03196947
H        5.88389700       1.52642374       9.67195029      -0.03372390      -0.03214231      -0.05119986
H        5.51471755       0.16868457       8.60395292       0.02026096       0.10000377       0.02549756
H        4.63338912       0.36909981      10.10963820      -0.00139202       0.03894448       0.00155778
C       15.39741656       0.80778983      15.48433280       0.07883709      -0.04652212      -0.02972989
C       14.35217654       1.90898211      15.58050554       0.10707286      -0.01402600       0.02870368
C       16.78666597       1.30097405      15.09753922      -0.02067627       0.04732500      -0.00158752
H       15.06033185       0.08366946      14.74115396      -0.03650491       0.00047375      -0.06950747
H       15.42921430       0.25938287      16.42445969      -0.03100964       0.08497543       0.07020789
N       13.06991800       1.34071679      15.98261584      -0.00072530      -0.01075210       0.07628281
H       14.32810013       2.46328303      14.63279596      -0.07455631      -0.03932427      -0.03100076
H       14.64180289       2.63054030      16.34287322       0.09067028       0.04050276       0.09110566
H       12.73408484       0.67855687      15.29735233      -0.05285985       0.05922934      -0.02785226
H       12.36355350       2.05231732      16.09814707      -0.02845625      -0.01310782      -0.07640518
H       17.50316404       0.47861765      15.05739903      -0.08111493       0.08182640      -0.01507637
H       17.16400692       2.03107571      15.81558025      -0.03318740      -0.00919923       0.03585044
H       16.77789572       1.77729313      14.11797002       0.03760840      -0.01789060      -0.00548835
C       19.83893482      10.74013223      19.30318402       0.01564155       0.08918546      -0.02270659
C       19.02083955       9.50179567      19.64552672       0.01135775       0.10110406      -0.00665849
C       19.02484622      11.92678082      18.80009108      -0.03928271      -0.00483791       0.01418762
H       20.58039819      10.47588203      18.54909628      -0.07363383      -0.08422185      -0.07842694
H       20.42142447      11.01459880      20.18245656      -0.06055688       0.04467641       0.07617722
N       19.92029381       8.43188870      20.06783490       0.06272344       0.04875789      -0.03826051
H       18.36720769       9.25153561      18.79930035       0.09016513      -0.09841254      -0.03569354
H       18.35384893       9.71769454      20.47882803      -0.04304512       0.09242541       0.02161429
H       20.48582666       8.10284341      19.29977307      -0.05629314      -0.09766348      -0.03734554
H       19.44151500       7.64911027      20.48744948      -0.04799565       0.00516281      -0.16419085
H       19.68040304      12.75471407      18.52432275      -0.05906211      -0.05320870       0.00696754
H       18.33042753      12.29554652      19.55533080       0.00317557      -0.03562627       0.04073060
H       18.43586280      11.66366773      17.92094630       0.02426131       0.01075241      -0.00457181
C        2.02261015       1.01252833      18.04219388      -0.01861457       0.06292641       0.09818645
C        1.93558993       0.91195222      16.52978378      -0.04172929      -0.02460255       0.08598291
C        0.63047772       1.03521680      18.65748387      -0.00200608       0.03943871      -0.02460885
H        2.54202954       1.93198652      18.31636849       0.07678921       0.09070123      -0.02290314
H        2.62543137       0.19710459      18.43663242      -0.03070612      -0.03266137      -0.05443812
N        3.25557389       0.82513452      15.91469524       0.02207192      -0.06185913      -0.01310702
H        1.32839371       1.74910691      16.16182940       0.04800141       0.03470823      -0.04418742
H        1.38472121       0.00763754      16.27310440      -0.01832595      -0.07234789      -0.04442163
H        3.81369256       1.63100959      16.16315160      -0.02879201       0.01625838      -0.07193603
H        3.15960944       0.81159902      14.90825014       0.02137541       0.07629069      -0.02610432
H        0.63509083       1.04038902      19.74783358       0.06000590      -0.01244408      -0.08880960
H        0.03935487       0.17935188      18.32722044       0.03845741       0.01791928       0.04411022
H        0.11567510       1.93345427      18.32567761      -0.04371661      -0.00300487       0.01162904
C       10.60978907      19.68007154       9.99610685      -0.04732003       0.02494479       0.06938430
C       11.02932477      19.43407627       8.55606985      -0.05390985      -0.04279537       0.06126283
C        9.09693314      19.63504531      10.18038407       0.00656157      -0.00714338      -0.02009136
H       10.98284296      20.65639299      10.30996282       0.01470316       0.06366356      -0.00873621
H       11.10210200      18.95251372      10.64190941      -0.00422448      -0.06504723      -0.04668840
N       12.48407550      19.45043130       8.43641220       0.04029865      -0.07561151       0.03248418
H       10.51059747      20.15378744       7.90857970       0.08431000       0.06024177       0.00139145
H       10.68609361      18.44944453       8.24384309      -0.02958139      -0.08863386      -0.01918228
H       12.87051914      20.35288794       8.67654871      -0.03625021       0.00335930      -0.05058325
H       12.78196763      19.21758646       7.50124673       0.01520311       0.06416078      -0.02543330
H        8.80740312      19.84584094      11.21122805       0.03615022      -0.00680445      -0.07586792
H        8.69582119      18.65759306       9.90914925       0.02232379       0.00750254       0.01356405
H        8.61478473      20.37684420       9.54183632      -0.02600762      -0.02075480       0.04200560
C        0.64890410      17.31796421      12.99987808      -0.04287897      -0.06245040      -0.04717315
C        1.73150531      18.28260267      13.45580217      -0.02647675      -0.08590475       0.02714410
C        1.22098852      16.04676479      12.38300355       0.01179594       0.02081270      -0.00773289
H        0.00027482      17.81301680      12.27257224       0.01022549       0.05477335      -0.07095086
H        0.01812652      17.07922039      13.85452837       0.05205463      -0.00221697       0.04433728
N        1.14147257      19.47681538      14.04721661      -0.04295789      -0.01206720       0.09087904
H        2.42486481      18.47518036      12.62432634      -0.07527939       0.07529858      -0.02959443
H        2.31786259      17.79096320      14.23003284       0.05188157      -0.03614651       0.08289938
H        0.59794584      20.00396508      13.37966850       0.08109226      -0.01109190      -0.04083428
H        1.83815880      20.08814559      14.44591936      -0.00344302       0.06572217      -0.05663982
H        0.43042031      15.36744739      12.06073723       0.05631678       0.04075943       0.03602690
H        1.84988766      15.51598086      13.10010385      -0.03194797       0.00954661      -0.02623092
H        1.83840945      16.27954194      11.51377188      -0.00946240      -0.02213059       0.00029538
C       19.91862045       9.19834427      10.04618799       0.04868744      -0.05977431       0.02595824
C       18.62240024       9.94844224       9.78134982       0.03190209      -0.06088013      -0.05017054
C       19.72608440       7.68766147      10.09028392      -0.02919680       0.00645810       0.00392820
H       20.35999618       9.54591649      10.98259659      -0.01200692       0.02604647       0.06072268
H       20.63258776       9.46916775       9.27015659      -0.01258094       0.00456894      -0.01525752
N       18.86142358      11.38077495       9.71887079       0.06876132       0.00637546      -0.06783029
H       17.86380769       9.63041362      10.51136917       0.03236860       0.10172354       0.08992893
H       18.24409812       9.64124594       8.80620947      -0.04517122      -0.03533906      -0.08019829
H       19.23377698      11.77261984      10.57165707      -0.09648180      -0.07910400      -0.00214794
H       18.05417181      11.90735197       9.42856653      -0.05202325       0.01855590       0.06739360
H       20.66401798       7.16567587      10.28866247      -0.05927688       0.04876948      -0.03872285
H       19.33361658       7.32260009       9.13981898       0.02995880      -0.03362977       0.02465139
H       19.01449812       7.40689725      10.86865529       0.00940694      -0.01915448      -0.00158473
C        5.60296953       1.07721105       1.99432419       0.01930230      -0.03774043      -0.07742658
C        4.54654554       1.70151901       2.89083435       0.05614750       0.05570646      -0.05728876
C        5.65055405       1.72436933       0.61537988      -0.01260476       0.00210345       0.00842892
H        5.37985122       0.01505469       1.89532545      -0.02519657      -0.07401316      -0.03314606
H        6.57929987       1.12716402       2.47855035      -0.04509875       0.08766034       0.05165600
N        4.53817530       1.05370066       4.19951571       0.05389016       0.03658364       0.04511705
H        3.57891153       1.67043454       2.37412228      -0.01885446      -0.04281159      -0.00010245
H        4.76839636       2.75731973       3.03257575       0.05877875       0.11114998       0.05400659
H        4.22415128       0.09979213       4.10263152      -0.05753811       0.07670194       0.01819266
H        3.90883565       1.51592866       4.84111138      -0.08062416      -0.02443867       0.02070747
H        6.41301826       1.27064117      -0.01998972      -0.04386978       0.02435388       0.05610196
H        5.86811559       2.79127805       0.69506218       0.01450448      -0.02913584      -0.02134721
H        4.68833556       1.62272060       0.11071854       0.04247253       0.01994507      -0.03184730
C        0.73548060      11.26859413       1.10543604      -0.01403239      -0.07486195      -0.05979275
C        1.40785287      12.50366046       1.68435602       0.01072212      -0.10224320       0.00525326
C        1.73179710      10.17687291       0.72999513       0.01294025       0.02731698      -0.00745085
H        0.16731363      11.54891204       0.21771330      -0.02531727       0.06218361      -0.05570819
H        0.00216445      10.89403036       1.82001959       0.04786993       0.02201014       0.06492050
N        0.42818041      13.53027239       2.03275000      -0.03729839      -0.01781394       0.06502702
H        2.18629194      12.85274598       0.99418089      -0.03933006       0.01967137      -0.04989232
H        1.92159303      12.21924229       2.60174486       0.06625397      -0.02347646       0.07970556
H       -0.04786913      13.86515242       1.20606812       0.05798489       0.01534897      -0.01971185
H        0.89355830      14.32730592       2.44437577      -0.01469034       0.04896825      -0.08214586
H        1.23907427       9.30814817       0.29238925       0.02467578       0.06141655       0.06986533
H        2.29768966       9.83379664       1.59674720      -0.04028768      -0.01009168      -0.02288307
H        2.44918866      10.55327032      -0.00193246      -0.00354635      -0.00918609      -0.01014098
C        7.48399860      18.70636374       1.06974398      -0.07959701       0.06287014       0.03273035
C        8.87662561      18.10106449       1.01862792      -0.07352064       0.04230469      -0.06629865
C        7.50246709      20.22565209       0.95365643       0.01974810      -0.00243360       0.03209555
H        6.99492443      18.41871399       2.00340872       0.00901091      -0.01226863       0.09786014
H        6.88698792      18.26518785       0.27121664       0.03499330      -0.00644520      -0.02589003
N        8.80664172      16.64711893       1.12209163      -0.06280830      -0.05235335      -0.06187214
H        9.51203747      18.59109162       1.77033571      -0.04311096      -0.10116072       0.05006358
H        9.31774384      18.33509838       0.05198000       0.01726619      -0.00127470      -0.08934053
H        8.46512905      16.33142376       2.01845830       0.07805662       0.06768147       0.03156320
H        9.69461931      16.20887917       0.93304803       0.01877668      -0.03002392       0.05422948
H        6.49387909      20.63757815       0.91416623       0.07398278      -0.04693698      -0.02619299
H        8.03009753      20.54233632       0.05260083      -0.02064820       0.00709937       0.05585251
H        8.01765949      20.67725965       1.80095311      -0.00145170       0.02807370      -0.01529969
C       12.27146475       1.91280321       6.88141745      -0.06846918       0.06410444       0.02541251
C       12.90211195       0.66364940       6.28712945      -0.03284300       0.03875545       0.08223646
C       11.05719422       1.59229006       7.74686223       0.00471566      -0.01617430      -0.01708470
H       11.97125458       2.58219536       6.07314906      -0.02791530       0.01795043      -0.07932943
H       13.02348118       2.45532385       7.45646686       0.04189294      -0.06562972       0.02075121
N       14.06827912       0.99586411       5.47306187       0.05981548       0.02805993       0.03617594
H       12.12985335       0.09397076       5.75457233       0.00607609       0.05512302      -0.06462947
H       13.24218934       0.02283261       7.09889133       0.02969273      -0.05436761       0.06999860
H       13.80655993       1.54672031       4.66665224      -0.04430824      -0.04556493      -0.02275397
H       14.51530101       0.15559993       5.13465580      -0.02415079       0.02250299      -0.07689546
H       10.60278017       2.49580537       8.15672568       0.05094081      -0.06553789      -0.02493393
H       11.32429816       0.94092170       8.58132428      -0.00033965       0.02957232      -0.01799165
H       10.29698091       1.07263175       7.16216164      -0.00829541       0.01364096       0.03153730
C       12.89913029      15.76299413       6.37896162       0.05468230      -0.04779752       0.05177958
C       12.32132595      16.34367149       5.09815952       0.05577947       0.02056833       0.06986800
C       14.39867957      16.00847417       6.50772770      -0.01401229      -0.00069883      -0.02206828
H       12.70479910      14.68940233       6.40189674      -0.00901076      -0.07255949      -0.03287832
H       12.37223642      16.18146855       7.23716089      -0.01475900       0.06267326      -0.03835417
N       10.88372787      16.10726456       5.01867099      -0.04655059       0.04942536       0.05228399
H       12.89208385      15.95977687       4.24212012      -0.05092182      -0.06785907      -0.00738109
H       12.47491179      17.42278272       5.10025701       0.01596944       0.09408607       0.00215676
H       10.67374117      15.12041319       4.96385237       0.04409908       0.00114387      -0.05979875
H       10.48155218      16.55675681       4.20880134      -0.00354949      -0.06870054      -0.03874957
H       14.79297353      15.58126990       7.43035134      -0.04032333       0.06402811      -0.05618070
H       14.62117327      17.07778238       6.51153488       0.00198696      -0.03283250       0.03447754
H       14.93890618      15.56339885       5.67021028       0.00502551       0.00409845       0.02280030
C        8.81872369       1.00829210      12.89589779       0.07248754      -0.03474383      -0.03027915
C        7.41590858       1.55414610      13.10035417       0.08840911       0.03011216      -0.06244755
C        9.13653749       0.76658704      11.42426681      -0.03292044       0.02033408       0.00604919
H        8.93382803       0.07206087      13.43970323      -0.05449763      -0.03730260       0.02718596
H        9.53283303       1.70505409      13.33306710      -0.05069589       0.08832525      -0.01931214
N        7.12619750       1.75253144      14.51948720       0.03939683       0.06963411       0.03927209
H        6.69619383       0.90099265      12.58674344       0.00307813      -0.05068898       0.06568403
H        7.34717361       2.52657906      12.61537582      -0.01089496       0.09976969      -0.04256067
H        7.15166925       0.87724255      15.02500770      -0.03919367      -0.00981582      -0.05900436
H        6.20831443       2.15231937      14.64511597      -0.05778419      -0.09048352       0.02567064
H       10.12405697       0.31884183      11.30048461      -0.08195163       0.05421404       0.00558421
H        9.11551210       1.69102337      10.84418531       0.00982688       0.01653756       0.04306320
H        8.40836443       0.08696353      10.98106473       0.03018957       0.00911371      -0.01839711
C       13.50854060       5.14569854      19.64961884      -0.02237909       0.10797678      -0.04717623
C       13.76526741       3.64862067      19.61127019      -0.07628294       0.07332826       0.02065955
C       12.02666218       5.50431256      19.67973176       0.00762459      -0.03032378      -0.03469090
H       13.97463682       5.61209231      18.78114424       0.06422977       0.04728309      -0.09565489
H       14.00866048       5.56364059      20.52030156      -0.00209697      -0.03134956       0.01287781
N       15.19148969       3.36270382      19.75621088      -0.00191393       0.01774923       0.07849532
H       13.30624774       3.22162181      18.71057356       0.07702239      -0.02444494      -0.05727280
H       13.25081800       3.19373474      20.45635149      -0.02866985      -0.08855569       0.03672758
H       15.72729315       3.73091109      18.98192874      -0.05716169      -0.05204490      -0.01343227
H       15.36376758       2.36948407      19.81113126       0.01187889       0.00061889      -0.11093303
H       11.88114991       6.58006805      19.79611949       0.02685871      -0.09997680       0.01938245
H       11.52903595       5.00479992      20.51221378      -0.04338980       0.02292448      -0.06711988
H       11.52024468       5.20074368      18.76274406       0.00609071      -0.03555766       0.00378803
C       13.79228533      15.08427465      19.90055659       0.09873299      -0.01018644       0.02300293
C       12.55913645      14.77640055      19.06594367       0.09676320       0.08017586      -0.00646014
C       15.03601808      15.46754129      19.10773530      -0.01737185      -0.01103301      -0.04191737
H       14.02599848      14.19734377      20.48819080       0.00699547      -0.08792971      -0.01472817
H       13.54770675      15.85387326      20.63249867      -0.06640175       0.08106771      -0.09871555
N       11.44672800      14.46322571      19.95978422       0.00039194       0.04533006       0.02242183
H       12.81145344      13.98102180      18.34937061      -0.06364643      -0.08058946       0.06124724
H       12.27299906      15.63565649      18.46542770       0.05236738       0.13755177      -0.01370452
H       11.64551726      13.65388579      20.53060325      -0.05311344      -0.04610964      -0.06021705
H       10.57997930      14.31326229      19.46656845       0.02822227      -0.09910935      -0.02129690
H       15.86115000      15.70421593      19.78368195      -0.04741174      -0.03512961      -0.08227920
H       14.86918455      16.33701278      18.47082972      -0.08477382       0.00996684       0.02899740
H       15.35676487      14.64412970      18.46826351       0.04850775       0.01024976      -0.00552526
C        0.81042437      18.73093070      18.29317629      -0.04290781       0.06373727       0.07174773
C        1.87762943      17.78839414      17.77079727      -0.02828961       0.11900851      -0.01832932
C        1.36801949      19.88746145      19.10560937       0.05831593      -0.02409692       0.01346522
H        0.12904724      18.14760761      18.90886417       0.06292427      -0.07290628       0.11024502
H        0.20540571      19.09988273      17.46451681       0.11607005      -0.03051056      -0.11404717
N        1.23523877      16.70735630      17.03252865      -0.01056914      -0.01004651      -0.07058979
H        2.50622375      17.46743725      18.61459203      -0.05729242      -0.10569996      -0.03921055
H        2.54018853      18.31687788      17.08797490       0.03096467       0.09802464      -0.09757724
H        0.57811242      16.21511683      17.62057905       0.05758689      -0.10106766      -0.01780023
H        1.89790431      16.04381812      16.66246324       0.02028075      -0.08143025       0.07665871
H        0.58167212      20.55574659      19.45853487       0.06672833      -0.11698928       0.00792319
H        2.05645251      20.48045000      18.50686334      -0.01320804      -0.01758597      -0.02513435
H        1.92235301      19.53070194      19.97260559      -0.00145761       0.02224653       0.04281922
C       20.02551689       3.00391947      19.70816224       0.06205654       0.10917499      -0.03161613
C       18.84368625       2.05414874      19.70863036       0.02007533       0.10727106       0.03953217
C       19.59741660       4.46434488      19.66172350      -0.00342320       0.02822489      -0.03131367
H       20.64194149       2.79036733      18.83841570       0.00725733       0.01561706      -0.09851677
H       20.65846893       2.79375936      20.57093372      -0.07760295       0.01728886       0.07666948
N       19.29415893       0.66702725      19.73172039      -0.00680924      -0.01303981       0.02578031
H       18.19027079       2.29944154      18.86157071       0.02549672      -0.07157064      -0.06880334
H       18.25271186       2.22663189      20.60231702      -0.05980774       0.02237313       0.08576985
H       19.75119580       0.41621677      18.86549660      -0.05580429       0.01508960      -0.04796684
H       18.52046842       0.03450993      19.87268726      -0.03934353      -0.02216060      -0.08065646
H       20.45115697       5.14089884      19.71904198      -0.04032121      -0.02663751       0.00867997
H       18.91782448       4.71064635      20.47907339       0.01120847      -0.01262277      -0.06971693
H       19.07906499       4.66875731      18.72443816      -0.03762793       0.08574816       0.03698632
C       14.74310012       4.44420559      10.26413282      -0.00454805       0.08038109      -0.05099004
C       14.53070643       3.48031068      11.42102897       0.06391259       0.06460375      -0.02616798
C       14.93579076       5.88542441      10.72277259      -0.01363792      -0.00899042       0.01888162
H       13.88522972       4.38592023       9.59044258      -0.07697505       0.00307401      -0.01097139
H       15.60044914       4.10928626       9.68003234       0.03008867      -0.02639322       0.04459635
N       14.35855609       2.11814225      10.92810688       0.06779439      -0.03210070      -0.03171824
H       13.70773482       3.84403322      12.05100417      -0.05902643      -0.04380412      -0.05683318
H       15.41872745       3.48858626      12.05162247       0.08712069      -0.00557272       0.05202377
H       13.51215763       2.02275022      10.38433010      -0.03072210       0.03435514       0.07200339
H       14.31927740       1.45570012      11.68790159      -0.06714111      -0.01469738      -0.00101038
H       15.07449339       6.56288363       9.87868950      -0.01674106      -0.05850249       0.05851662
H       15.80937485       5.97557976      11.37097476      -0.01649749       0.00601740      -0.02712461
H       14.07214627       6.23443792      11.29011436       0.01499308       0.02566688      -0.01667000
C       10.84483622      12.54499298      10.01945153       0.08918060       0.04371275      -0.02258616
C        9.39025315      12.10220738      10.02679651       0.06135920       0.07746149       0.03455584
C       11.02041907      13.98043121       9.53341676      -0.01552252      -0.01102418      -0.00562130
H       11.42158604      11.87004161       9.38469144       0.00752554      -0.03748827      -0.06886625
H       11.25634149      12.42904772      11.02274583      -0.05058192       0.00641298       0.04371694
N        9.26974443      10.72614885      10.50408242       0.02560303      -0.01747874       0.07083433
H        8.95315368      12.27527741       9.03483528       0.01837473      -0.07538774      -0.01074480
H        8.83251014      12.73790458      10.71281415      -0.05129085       0.05829788       0.05923458