13
Lattice="22.26507235923432 0.0 0.0 0.0 22.26507235923432 0.0 0.0 0.0 22.26507235923432" Properties=species:S:1:pos:R:3:forces:R:3 mol_liquid.pdb=T energy=-304080.1695826965 stress="0.0014487652386418071 0.00012848255564447089 0.00013009067860178858 0.00012848255564447089 0.0011952565834020296 -5.416740966239634e-05 0.00013009067860178858 -5.416740966239634e-05 0.0010096946884050753" free_energy=-304080.1695826965 pbc="T T T"
C        6.61179366       6.63987286       0.97383811       0.02177394      -0.07875998      -0.01109101
C        6.63070645       8.13920543       1.22946489       0.04368427      -0.07440128       0.03123981
C        8.01448328       6.04983841       0.85675793       0.00284785       0.02624115       0.02875492
H        6.05606914       6.44130767       0.05591775      -0.02154758       0.02672016      -0.04465828
H        6.05739888       6.14513005       1.77127063      -0.00785462       0.04001073       0.05648013
N        5.27888064       8.66763144       1.37789547      -0.02046913      -0.02699066       0.08686467
H        7.22201022       8.62182937       0.44071240      -0.08904993       0.01689718      -0.06427686
H        7.15707272       8.33253520       2.16383107       0.06722808      -0.00351043       0.07474406
H        4.71484175       8.50905514       0.55375716       0.04274535       0.02333186       0.01849757
H        5.29456700       9.66075124       1.55974769      -0.02686510       0.00471938      -0.09088814
H        7.98852960       4.98543356       0.61515453      -0.01792663       0.08414173       0.03834649
H        8.56792581       6.16557197       1.78882089      -0.01212520      -0.02279341       0.01511886
H        8.58621080       6.55167156       0.07526223       0.00557411      -0.03360170       0.02874839